40
	Energy:      37.9906111
O          1.73131       -0.13030       -0.02913
O          0.97067        5.00995       -1.44355
O          0.80793        6.34062        0.30692
C          1.67338        4.19785        0.86524
C          1.94829        2.80177        0.21950
C          0.69453        2.01715       -0.23552
C          0.70248        4.04721        2.05857
C          3.01598        4.74428        1.39654
C          1.07808        0.70402       -0.92154
C          1.10979        5.23436       -0.11594
C          3.01430       -0.58793       -0.05707
C          3.38965       -1.59316        0.86283
C          3.98500       -0.08816       -0.95467
C          5.29687       -0.58257       -0.94150
C          4.70421       -2.08188        0.86574
C          5.65001       -1.58274       -0.02843
C          2.41349       -2.16911        1.85381
C          6.30880       -0.03200       -1.90353
H          2.47532        2.16534        0.96489
H          2.64216        2.93246       -0.63971
H          0.08989        2.61055       -0.94840
H          0.05102        1.77736        0.63651
H          1.09365        3.31060        2.79333
H          0.57011        5.01709        2.58539
H         -0.30330        3.71998        1.72315
H          3.74047        4.87457        0.56332
H          2.87993        5.72919        1.89411
H          3.46190        4.04744        2.13916
H          1.66476        0.91929       -1.83386
H          0.15335        0.18924       -1.25774
H          1.26347        4.21280       -1.90023
H          3.75249        0.68961       -1.66515
H          4.99782       -2.85397        1.56677
H          6.65871       -1.97620       -0.00422
H          2.31676       -3.26267        1.68669
H          2.78469       -1.99340        2.88548
H          1.40290       -1.71920        1.77189
H          6.42736        1.05929       -1.73576
H          7.30062       -0.51587       -1.77650
H          5.96551       -0.20413       -2.94536
